/*--------------------------------*- C++ -*----------------------------------*\
| =========                 |                                                 |
| \\      /  F ield         | OpenFOAM: The Open Source CFD Toolbox           |
|  \\    /   O peration     | Version:  2212                                  |
|   \\  /    A nd           | Website:  www.openfoam.com                      |
|    \\/     M anipulation  |                                                 |
\*---------------------------------------------------------------------------*/
FoamFile
{
    version     2.0;
    format      ascii;
    arch        "LSB;label=32;scalar=64";
    class       volScalarField;
    location    "600";
    object      p;
}
// * * * * * * * * * * * * * * * * * * * * * * * * * * * * * * * * * * * * * //

dimensions      [0 2 -2 0 0 0 0];

internalField   nonuniform List<scalar> 
111200
(
0
-4.0793613e-06
-8.9558805e-06
-1.02623e-05
-7.651776e-06
-5.6499662e-06
-5.7574776e-06
-7.2881158e-06
-1.1662741e-05
-1.8916399e-05
8.3491988e-07
-4.2547621e-06
-1.0281006e-05
-1.3233764e-05
-1.2065566e-05
-1.0430794e-05
-1.04454e-05
-1.1889379e-05
-1.5674912e-05
-2.2852123e-05
1.940153e-06
-3.8757063e-06
-1.1143133e-05
-1.5580215e-05
-1.6086445e-05
-1.4975249e-05
-1.4723762e-05
-1.592393e-05
-1.9231713e-05
-2.5469394e-05
1.2048338e-06
-4.6522252e-06
-1.2273032e-05
-1.7520053e-05
-1.9217928e-05
-1.8814615e-05
-1.8368542e-05
-1.9118223e-05
-2.1673419e-05
-2.653105e-05
-1.5562319e-06
-6.7975208e-06
-1.387991e-05
-1.9151762e-05
-2.1432778e-05
-2.1791291e-05
-2.1495143e-05
-2.1931265e-05
-2.3816314e-05
-2.7674774e-05
-6.1515543e-06
-1.0379023e-05
-1.6381782e-05
-2.1074521e-05
-2.3341237e-05
-2.3978766e-05
-2.4082432e-05
-2.4500587e-05
-2.6011442e-05
-2.9173586e-05
-1.2559328e-05
-1.5585061e-05
-2.0166976e-05
-2.3833364e-05
-2.5642407e-05
-2.6187853e-05
-2.6305573e-05
-2.6657975e-05
-2.8014373e-05
-3.0606477e-05
-2.0436597e-05
-2.2357298e-05
-2.5287263e-05
-2.7555705e-05
-2.8547888e-05
-2.8738911e-05
-2.8732709e-05
-2.9003891e-05
-2.9941512e-05
-3.1891568e-05
-2.8821849e-05
-3.0277292e-05
-3.1718457e-05
-3.2330673e-05
-3.2082276e-05
-3.1578702e-05
-3.1352081e-05
-3.1491856e-05
-3.2124462e-05
-3.3435236e-05
-3.6022402e-05
-3.715992e-05
-3.79851e-05
-3.7570586e-05
-3.6153888e-05
-3.4680043e-05
-3.3979703e-05
-3.3951716e-05
-3.4491308e-05
-3.5323001e-05
-0.024527776
-0.024527686
-0.024527564
-0.024524988
-0.024521646
-0.024520107
-0.024520934
-0.02452444
-0.024532915
-0.024544578
-0.024527344
-0.024528424
-0.024529799
-0.024528678
-0.024526122
-0.024524683
-0.024526058
-0.024530174
-0.02453871
-0.024552553
-0.024527477
-0.024529439
-0.024532232
-0.024532935
-0.024531618
-0.024530439
-0.024531543
-0.024535609
-0.02454375
-0.024557006
-0.024529049
-0.02453136
-0.024534807
-0.024536929
-0.024537374
-0.024536778
-0.024537124
-0.024540101
-0.02454648
-0.024556555
-0.024531998
-0.024534073
-0.024537366
-0.024540182
-0.024542277
-0.024542815
-0.024542753
-0.02454437
-0.024548664
-0.024555848
-0.024536448
-0.024537677
-0.024540149
-0.024542797
-0.024545816
-0.02454764
-0.024547991
-0.024548817
-0.024551515
-0.024556525
-0.024542433
-0.024542389
-0.024543682
-0.024545443
-0.024548344
-0.024550902
-0.024552022
-0.024552952
-0.024554716
-0.024558155
-0.024549199
-0.02454788
-0.024548127
-0.024548773
-0.024550751
-0.024553123
-0.024554606
-0.024555689
-0.024557306
-0.024559928
-0.024555549
-0.024553411
-0.024553217
-0.024553092
-0.024553895
-0.024555345
-0.024556489
-0.024557573
-0.024559105
-0.024561169
-0.024559451
-0.024557847
-0.024557745
-0.024557269
-0.024557265
-0.024557817
-0.024558251
-0.024558901
-0.024560125
-0.024561607
-0.049053101
-0.049051195
-0.049048562
-0.049044841
-0.049041542
-0.049040095
-0.049039815
-0.049041705
-0.049048926
-0.049062315
-0.049052647
-0.049051642
-0.049049762
-0.049046385
-0.049043105
-0.049042315
-0.049043827
-0.049047396
-0.049056058
-0.049071885
-0.04905376
-0.049053509
-0.049052336
-0.049049464
-0.049046288
-0.049045466
-0.049047763
-0.049052788
-0.049062774
-0.049079394
-0.049056169
-0.049056343
-0.049055768
-0.049053799
-0.049051188
-0.049050163
-0.049052111
-0.049057244
-0.049066822
-0.049081529
-0.049059714
-0.049059882
-0.049059628
-0.049058645
-0.049057075
-0.049056117
-0.049057521
-0.049061613
-0.049069401
-0.049081232
-0.049064566
-0.049064157
-0.04906374
-0.049063382
-0.04906296
-0.049062644
-0.049063659
-0.049066799
-0.049072539
-0.049081301
-0.049070775
-0.049069126
-0.049068105
-0.049067824
-0.049068101
-0.049068447
-0.049069544
-0.049072164
-0.049076532
-0.049082694
-0.049077353
-0.049074281
-0.049072624
-0.049072045
-0.049072364
-0.049073032
-0.0490742
-0.049076541
-0.049080237
-0.049084842
-0.049083044
-0.049079023
-0.049077106
-0.049076136
-0.049076031
-0.049076568
-0.049077622
-0.04907965
-0.049082888
-0.049086749
-0.049086212
-0.049083188
-0.049081424
-0.049079936
-0.049079236
-0.049079401
-0.049080174
-0.049081796
-0.049084547
-0.049087886
-0.073575801
-0.073573995
-0.073572778
-0.073571002
-0.073568427
-0.073565905
-0.073562962
-0.073561318
-0.073564213
-0.073573547
-0.073575606
-0.073574451
-0.073573421
-0.073571501
-0.073568844
-0.073567142
-0.073566122
-0.073566029
-0.073570483
-0.073581794
-0.073577006
-0.073576476
-0.073575699
-0.073573599
-0.073570601
-0.073569012
-0.073569119
-0.073571032
-0.07357768
-0.073590459
-0.073579601
-0.073579589
-0.07357922
-0.073577356
-0.073574217
-0.073572239
-0.073572705
-0.073575871
-0.073583804
-0.073597128
-0.073583577
-0.073583672
-0.073583555
-0.073582193
-0.073579468
-0.073577391
-0.073577774
-0.073580929
-0.073588437
-0.073600859
-0.073589188
-0.073588663
-0.073588363
-0.073587422
-0.073585447
-0.073583743
-0.073584102
-0.073586904
-0.073592965
-0.073603072
-0.073596343
-0.073594335
-0.073593357
-0.073592524
-0.073591173
-0.073590032
-0.07359054
-0.073593171
-0.073597997
-0.073605235
-0.073603849
-0.073599939
-0.073598141
-0.073597152
-0.073596037
-0.073595319
-0.073595992
-0.073598487
-0.073602636
-0.073607716
-0.073610134
-0.073604839
-0.073602513
-0.073601143
-0.073599843
-0.073599251
-0.073599992
-0.073602252
-0.073605937
-0.073609908
-0.073613102
-0.073608567
-0.073606352
-0.073604445
-0.073602783
-0.073602079
-0.073602722
-0.073604689
-0.073607999
-0.073611552
-0.098100589
-0.098099021
-0.098098647
-0.098098444
-0.098096971
-0.098093967
-0.098089122
-0.098084594
-0.098084278
-0.098090353
-0.098100099
-0.098098908
-0.098098308
-0.09809783
-0.098096509
-0.098094481
-0.098091334
-0.098087738
-0.098087864
-0.098094422
-0.098101067
-0.0981003
-0.098099664
-0.098098799
-0.0980972
-0.098095375
-0.098093321
-0.09809151
-0.098093467
-0.098100318
-0.098103333
-0.098103025
-0.098102594
-0.09810158
-0.098099667
-0.098097674
-0.098096189
-0.098095879
-0.098099485
-0.098107218
-0.098107398
-0.098107097
-0.098106718
-0.098105734
-0.098103823
-0.098101842
-0.09810076
-0.098101094
-0.098105201
-0.09811365
-0.098113276
-0.098112271
-0.098111553
-0.098110608
-0.09810896
-0.098107258
-0.098106664
-0.09810744
-0.098111005
-0.098118711
-0.098121052
-0.098118213
-0.098116632
-0.098115563
-0.098114147
-0.098112812
-0.098112723
-0.098114101
-0.098117125
-0.098122702
-0.098129242
-0.098124051
-0.098121413
-0.098120029
-0.098118591
-0.098117516
-0.098117856
-0.098119789
-0.098122785
-0.098126394
-0.098135975
-0.098129095
-0.098125741
-0.098123744
-0.098121854
-0.09812078
-0.098121413
-0.098123752
-0.098127112
-0.098129826
-0.098138764
-0.098132689
-0.098129196
-0.098126445
-0.098123971
-0.098122705
-0.098123395
-0.098125934
-0.098129739
-0.098132856
-0.12262747
-0.12262661
-0.12262688
-0.12262733
-0.12262638
-0.12262326
-0.12261767
-0.12261193
-0.12261013
-0.12261411
-0.12262629
-0.12262559
-0.12262559
-0.12262586
-0.12262525
-0.1226232
-0.12261913
-0.12261386
-0.12261149
-0.12261577
-0.12262648
-0.12262598
-0.12262583
-0.12262579
-0.12262507
-0.12262334
-0.12262017
-0.12261617
-0.12261473
-0.12261846
-0.12262807
-0.12262775
-0.12262753
-0.12262721
-0.12262635
-0.12262475
-0.12262216
-0.12261928
-0.12261898
-0.12262259
-0.12263186
-0.12263119
-0.12263061
-0.12262995
-0.12262902
-0.1226278
-0.12262594
-0.12262365
-0.12262378
-0.12262777
-0.12263791
-0.12263622
-0.12263491
-0.12263383
-0.12263278
-0.12263198
-0.12263114
-0.12262962
-0.12262945
-0.12263337
-0.12264625
-0.12264247
-0.12264001
-0.12263844
-0.12263713
-0.12263647
-0.1226366
-0.12263636
-0.12263606
-0.12263853
-0.122655
-0.12264869
-0.12264502
-0.12264293
-0.12264123
-0.12264047
-0.12264119
-0.12264233
-0.1226428
-0.12264346
-0.12266182
-0.12265386
-0.12264945
-0.12264671
-0.12264449
-0.12264354
-0.1226445
-0.12264653
-0.12264823
-0.12264833
-0.12266416
-0.1226574
-0.12265311
-0.12264974
-0.12264705
-0.12264595
-0.12264691
-0.12264921
-0.12265169
-0.12265273
-0.14715503
-0.1471547
-0.1471552
-0.14715579
-0.14715515
-0.1471526
-0.14714774
-0.14714225
-0.14714003
-0.14714245
-0.14715298
-0.14715274
-0.14715326
-0.14715395
-0.14715368
-0.14715196
-0.14714834
-0.14714326
-0.14713996
-0.14714278
-0.14715264
-0.14715254
-0.14715298
-0.14715347
-0.14715304
-0.14715135
-0.14714817
-0.14714399
-0.14714134
-0.14714345
-0.14715391
-0.14715382
-0.14715406
-0.14715427
-0.14715371
-0.14715201
-0.14714887
-0.14714513
-0.14714327
-0.14714463
-0.14715776
-0.14715703
-0.1471566
-0.14715629
-0.14715569
-0.1471544
-0.14715166
-0.14714782
-0.14714579
-0.14714705
-0.14716407
-0.1471621
-0.14716063
-0.14715969
-0.14715893
-0.14715811
-0.14715628
-0.14715275
-0.14714991
-0.14715075
-0.1471724
-0.14716811
-0.14716539
-0.14716394
-0.14716298
-0.14716239
-0.14716156
-0.1471591
-0.1471559
-0.14715518
-0.14718058
-0.14717402
-0.14717032
-0.14716858
-0.14716735
-0.14716675
-0.14716658
-0.14716538
-0.14716281
-0.14716031
-0.14718742
-0.14717992
-0.1471757
-0.14717292
-0.14717091
-0.14717041
-0.14717082
-0.14717064
-0.14716918
-0.14716611
-0.1471909
-0.14718401
-0.14717845
-0.14717373
-0.14717137
-0.14717232
-0.14717424
-0.14717503
-0.14717435
-0.14717185
-0.17168262
-0.17168262
-0.17168316
-0.1716838
-0.17168356
-0.17168202
-0.17167872
-0.1716744
-0.17167231
-0.1716735
-0.17168001
-0.17168005
-0.17168097
-0.17168197
-0.17168192
-0.1716807
-0.17167826
-0.17167467
-0.1716718
-0.17167329
-0.17167939
-0.17167955
-0.17168055
-0.17168157
-0.1716813
-0.17167966
-0.17167698
-0.17167394
-0.17167196
-0.17167336
-0.17168059
-0.17168074
-0.17168151
-0.17168235
-0.17168205
-0.17168011
-0.1716768
-0.17167343
-0.17167197
-0.17167303
-0.17168441
-0.17168379
-0.17168381
-0.1716842
-0.17168399
-0.17168242
-0.17167905
-0.17167491
-0.17167264
-0.17167332
-0.17168988
-0.17168801
-0.17168736
-0.17168765
-0.17168763
-0.17168649
-0.17168359
-0.17167915
-0.17167547
-0.17167489
-0.17169726
-0.17169385
-0.17169275
-0.17169312
-0.17169309
-0.17169205
-0.17168955
-0.17168533
-0.17168072
-0.17167797
-0.17170527
-0.17169958
-0.17169692
-0.17169693
-0.17169765
-0.17169759
-0.17169588
-0.17169222
-0.17168739
-0.17168253
-0.17171086
-0.17170229
-0.17169838
-0.17169826
-0.17170036
-0.17170273
-0.17170258
-0.17169951
-0.17169469
-0.1716888
-0.17171434
-0.17170676
-0.17170324
-0.17170169
-0.17170268
-0.17170712
-0.17170953
-0.17170734
-0.17170218
-0.17169585
-0.19620962
-0.19620991
-0.19621066
-0.19621159
-0.19621188
-0.19621129
-0.19620955
-0.19620673
-0.19620481
-0.19620474
-0.19620702
-0.19620716
-0.1962084
-0.19620985
-0.19621018
-0.19620947
-0.19620807
-0.19620619
-0.19620452
-0.19620512
-0.19620627
-0.19620647
-0.19620781
-0.19620948
-0.19620982
-0.19620854
-0.19620638
-0.19620452
-0.19620394
-0.19620531
-0.19620683
-0.19620708
-0.19620834
-0.19621014
-0.19621086
-0.19620949
-0.19620641
-0.1962036
-0.1962031
-0.19620468
-0.19620948
-0.19620933
-0.19621074
-0.19621315
-0.19621448
-0.19621323
-0.19620957
-0.19620555
-0.1962037
-0.19620456
-0.19621389
-0.19621298
-0.19621465
-0.19621854
-0.19622134
-0.1962204
-0.19621609
-0.19621081
-0.19620702
-0.19620584
-0.19621838
-0.19621429
-0.19621613
-0.19622314
-0.1962294
-0.19623007
-0.19622544
-0.19621875
-0.19621285
-0.19620888
-0.19622174
-0.19621667
-0.19622
-0.1962286
-0.19623689
-0.1962399
-0.19623609
-0.19622833
-0.19622032
-0.19621358
-0.19622893
-0.19622518
-0.19622745
-0.19623277
-0.19624028
-0.19624621
-0.19624529
-0.19623809
-0.19622897
-0.19622062
-0.19623945
-0.19623648
-0.19623591
-0.19623671
-0.19624097
-0.19624929
-0.19625242
-0.19624726
-0.19623794
-0.19622919
-0.22073601
-0.22073657
-0.22073765
-0.220739
-0.22073986
-0.22073995
-0.22073918
-0.22073757
-0.22073594
-0.2207347
-0.22073368
-0.22073375
-0.22073515
-0.22073711
-0.22073809
-0.22073796
-0.22073719
-0.22073635
-0.22073582
-0.22073597
-0.22073235
-0.22073244
-0.22073401
-0.22073649
-0.22073802
-0.22073772
-0.2207361
-0.22073481
-0.22073511
-0.22073648
-0.22073204
-0.22073259
-0.22073501
-0.22073886
-0.22074168
-0.22074139
-0.22073846
-0.22073563
-0.2207352
-0.2207366
-0.22073304
-0.22073309
-0.2207366
-0.22074368
-0.22075013
-0.22075087
-0.22074626
-0.22074088
-0.22073822
-0.2207381
-0.22073311
-0.22073188
-0.22073839
-0.22075107
-0.22076192
-0.22076487
-0.22075903
-0.22075039
-0.22074433
-0.22074135
-0.2207348
-0.22073451
-0.22074367
-0.22075857
-0.2207725
-0.22077811
-0.22077291
-0.22076196
-0.22075237
-0.22074599
-0.22074186
-0.22074241
-0.22075053
-0.22076336
-0.22077774
-0.22078619
-0.22078373
-0.22077286
-0.22076102
-0.22075159
-0.22075314
-0.22075326
-0.22075865
-0.22076743
-0.22077987
-0.22079028
-0.22079078
-0.22078205
-0.2207702
-0.22075893
-0.22076603
-0.22076574
-0.22076765
-0.22077203
-0.2207807
-0.22079259
-0.22079593
-0.22078988
-0.22077903
-0.22076805
-0.24526171
-0.24526273
-0.24526414
-0.24526582
-0.2452672
-0.24526774
-0.24526723
-0.24526595
-0.24526448
-0.24526262
-0.24525958
-0.24525957
-0.24526123
-0.24526382
-0.24526569
-0.24526617
-0.24526552
-0.24526478
-0.24526461
-0.2452645
-0.24525758
-0.24525813
-0.24526075
-0.24526495
-0.24526844
-0.24526921
-0.24526742
-0.24526543
-0.24526512
-0.2452658
-0.2452557
-0.24525649
-0.24526109
-0.24526954
-0.24527736
-0.2452799
-0.24527634
-0.24527115
-0.24526847
-0.24526789
-0.24525375
-0.24525525
-0.24526362
-0.24527739
-0.24529054
-0.24529619
-0.24529175
-0.24528252
-0.24527572
-0.24527225
-0.245254
-0.24525701
-0.24526837
-0.24528558
-0.24530278
-0.24531174
-0.24530822
-0.24529634
-0.24528533
-0.24527816
-0.24525891
-0.24526328
-0.24527555
-0.24529289
-0.24531128
-0.24532266
-0.24532102
-0.24530888
-0.24529522
-0.24528459
-0.24526872
-0.24527305
-0.2452836
-0.24529855
-0.24531614
-0.2453284
-0.24532867
-0.24531828
-0.24530415
-0.24529087
-0.24528089
-0.24528384
-0.24529127
-0.2453029
-0.24531887
-0.24533122
-0.24533275
-0.24532523
-0.24531256
-0.24529746
-0.24529327
-0.24529505
-0.24529849
-0.2453054
-0.24531781
-0.24533133
-0.24533454
-0.24533009
-0.24531926
-0.2453045
-0.26978679
-0.26978855
-0.26979065
-0.2697926
-0.26979432
-0.26979498
-0.26979397
-0.26979206
-0.26979017
-0.26978803
-0.26978467
-0.26978542
-0.26978829
-0.26979216
-0.2697954
-0.26979644
-0.2697949
-0.26979263
-0.2697913
-0.26979035
-0.26978172
-0.26978329
-0.26978824
-0.26979609
-0.26980345
-0.26980651
-0.26980381
-0.26979865
-0.26979513
-0.26979338
-0.26977862
-0.26978209
-0.26979066
-0.26980329
-0.26981601
-0.26982279
-0.26982016
-0.26981118
-0.26980325
-0.26979844
-0.26977827
-0.26978348
-0.26979528
-0.26981194
-0.26982894
-0.26983953
-0.2698384
-0.26982709
-0.26981467
-0.26980586
-0.26978131
-0.26978813
-0.26980209
-0.26982071
-0.26983989
-0.26985286
-0.26985323
-0.26984168
-0.26982653
-0.26981413
-0.26978879
-0.26979626
-0.26980994
-0.26982804
-0.26984745
-0.26986106
-0.26986259
-0.26985238
-0.26983676
-0.26982184
-0.26979927
-0.26980562
-0.26981713
-0.26983327
-0.269852
-0.2698649
-0.269867
-0.26985913
-0.2698447
-0.26982815
-0.26981021
-0.26981465
-0.26982265
-0.26983558
-0.26985299
-0.26986516
-0.26986774
-0.26986315
-0.26985084
-0.26983315
-0.26982019
-0.26982291
-0.26982624
-0.26983357
-0.2698471
-0.26986043
-0.26986466
-0.26986359
-0.26985295
-0.26983622
-0.29431145
-0.2943144
-0.29431808
-0.29432091
-0.29432318
-0.29432371
-0.29432129
-0.2943173
-0.29431356
-0.29430993
-0.29430904
-0.29431147
-0.29431693
-0.29432354
-0.29432939
-0.29433163
-0.29432852
-0.29432238
-0.29431714
-0.29431347
-0.29430623
-0.29431081
-0.294319
-0.29432972
-0.29434049
-0.29434653
-0.29434424
-0.29433511
-0.29432583
-0.29431962
-0.29430502
-0.29431195
-0.29432343
-0.29433831
-0.29435338
-0.2943635
-0.2943631
-0.29435234
-0.29433874
-0.29432847
-0.29430697
-0.29431542
-0.29432973
-0.29434766
-0.29436539
-0.29437803
-0.29437965
-0.29436908
-0.29435294
-0.29433909
-0.29431204
-0.29432133
-0.29433659
-0.29435564
-0.29437456
-0.29438816
-0.29439101
-0.29438174
-0.29436531
-0.29434926
-0.29432032
-0.29432908
-0.29434301
-0.29436126
-0.29438026
-0.29439353
-0.2943968
-0.29438949
-0.29437444
-0.29435739
-0.29432973
-0.29433677
-0.29434799
-0.29436407
-0.29438234
-0.29439443
-0.29439784
-0.29439315
-0.29438023
-0.29436274
-0.29433803
-0.29434293
-0.29435021
-0.2943627
-0.29437926
-0.29439047
-0.29439456
-0.29439354
-0.2943828
-0.29436505
-0.29434453
-0.2943471
-0.29434928
-0.29435574
-0.29436824
-0.2943805
-0.29438609
-0.29438838
-0.294379
-0.29436303
-0.31883608
-0.31884078
-0.31884702
-0.31885187
-0.31885572
-0.3188563
-0.31885155
-0.31884305
-0.31883432
-0.31882656
-0.31883442
-0.31884001
-0.31884826
-0.31885696
-0.31886513
-0.31886916
-0.31886513
-0.31885409
-0.31884212
-0.31883367
-0.31883336
-0.318841
-0.31885185
-0.31886459
-0.31887714
-0.31888523
-0.31888359
-0.31887178
-0.31885642
-0.31884511
-0.31883429
-0.31884385
-0.31885768
-0.31887388
-0.31888943
-0.3189005
-0.31890152
-0.31889064
-0.31887332
-0.31885869
-0.31883765
-0.31884813
-0.31886374
-0.31888204
-0.31889927
-0.31891188
-0.31891488
-0.31890592
-0.31888882
-0.31887238
-0.31884349
-0.31885368
-0.31886893
-0.3188876
-0.31890551
-0.31891839
-0.31892237
-0.31891559
-0.31890034
-0.31888352
-0.31885118
-0.31885997
-0.31887301
-0.31889035
-0.31890805
-0.31892025
-0.31892447
-0.31892006
-0.3189074
-0.31889083
-0.31885863
-0.31886543
-0.31887526
-0.3188899
-0.31890644
-0.31891739
-0.31892188
-0.31892033
-0.31891025
-0.31889391
-0.31886394
-0.31886846
-0.31887423
-0.31888506
-0.31889934
-0.31890938
-0.31891458
-0.31891646
-0.31890856
-0.31889231
-0.31886713
-0.31886888
-0.31886979
-0.31887487
-0.31888532
-0.31889565
-0.31890176
-0.31890553
-0.3188993
-0.31888564
-0.3433621
-0.34336967
-0.34337832
-0.34338493
-0.34339039
-0.34339143
-0.34338413
-0.34336952
-0.34335308
-0.34333966
-0.34336228
-0.34337057
-0.34338087
-0.34339122
-0.3434009
-0.34340602
-0.34340117
-0.34338585
-0.34336642
-0.34335188
-0.3433627
-0.34337255
-0.34338538
-0.34339941
-0.34341261
-0.34342133
-0.34341983
-0.34340618
-0.34338609
-0.34337037
-0.34336495
-0.34337605
-0.34339095
-0.34340745
-0.34342272
-0.34343372
-0.34343529
-0.34342465
-0.34340587
-0.3433892
-0.34336888
-0.34337996
-0.34339535
-0.34341298
-0.34342918
-0.34344113
-0.34344476
-0.34343737
-0.3434214
-0.34340505
-0.3433745
-0.34338434
-0.3433983
-0.34341556
-0.34343187
-0.34344367
-0.3434482
-0.3434437
-0.34343107
-0.34341572
-0.34338085
-0.34338879
-0.34339996
-0.3434153
-0.34343098
-0.34344186
-0.34344663
-0.34344476
-0.34343534
-0.34342092
-0.34338629
-0.3433921
-0.34339983
-0.34341214
-0.3434262
-0.34343573
-0.34344065
-0.34344143
-0.3434347
-0.34342081
-0.34338931
-0.34339281
-0.34339679
-0.34340533
-0.34341686
-0.34342523
-0.34343024
-0.34343345
-0.34342874
-0.34341544
-0.34339021
-0.34339104
-0.34339098
-0.34339439
-0.34340272
-0.34341073
-0.34341512
-0.34341901
-0.34341607
-0.34340574
-0.36789013
-0.36790025
-0.36791043
-0.36791852
-0.36792545
-0.36792706
-0.36791785
-0.36789777
-0.36787345
-0.36785446
-0.3678919
-0.36790175
-0.36791338
-0.36792501
-0.36793575
-0.3679415
-0.36793603
-0.36791764
-0.36789228
-0.36787174
-0.3678931
-0.36790408
-0.36791763
-0.36793205
-0.36794545
-0.36795437
-0.36795291
-0.36793833
-0.36791589
-0.36789765
-0.36789585
-0.36790722
-0.36792165
-0.36793749
-0.36795209
-0.36796271
-0.36796457
-0.3679547
-0.36793667
-0.36792044
-0.36789967
-0.36791011
-0.36792399
-0.36794008
-0.36795488
-0.36796586
-0.36796972
-0.36796401
-0.36795053
-0.36793599
-0.36790447
-0.36791307
-0.36792489
-0.36793995
-0.3679543
-0.36796469
-0.36796932
-0.36796675
-0.36795726
-0.36794426
-0.36790932
-0.36791586
-0.36792467
-0.36793742
-0.36795073
-0.36795997
-0.36796462
-0.36796441
-0.36795815
-0.3679464
-0.3679132
-0.36791765
-0.36792316
-0.36793277
-0.36794419
-0.36795198
-0.36795626
-0.36795784
-0.36795398
-0.3679431
-0.36791488
-0.36791721
-0.36791959
-0.36792564
-0.36793462
-0.36794109
-0.36794452
-0.36794714
-0.3679449
-0.36793518
-0.36791464
-0.36791478
-0.36791418
-0.36791587
-0.36792232
-0.36792798
-0.36792994
-0.36793221
-0.36793122
-0.3679245
-0.39241911
-0.39243074
-0.3924418
-0.39245141
-0.39246008
-0.39246279
-0.39245313
-0.39243023
-0.39240086
-0.39237878
-0.39242173
-0.39243217
-0.39244425
-0.39245676
-0.39246857
-0.39247513
-0.39246992
-0.39245097
-0.39242336
-0.39240019
-0.39242326
-0.3924342
-0.39244717
-0.39246134
-0.39247481
-0.39248387
-0.39248285
-0.3924692
-0.39244774
-0.39243042
-0.392426
-0.39243642
-0.39244929
-0.39246389
-0.39247763
-0.39248762
-0.39248966
-0.39248142
-0.39246608
-0.3924524
-0.39242931
-0.39243821
-0.39244986
-0.39246396
-0.3924772
-0.39248692
-0.39249058
-0.39248646
-0.392476
-0.3924639
-0.39243311
-0.39244001
-0.39244935
-0.3924619
-0.39247422
-0.39248295
-0.39248703
-0.3924856
-0.3924788
-0.39246802
-0.39243671
-0.39244169
-0.39244814
-0.39245818
-0.39246913
-0.39247656
-0.39248027
-0.39248042
-0.39247624
-0.39246684
-0.39243956
-0.39244269
-0.39244625
-0.39245319
-0.39246217
-0.39246825
-0.39247109
-0.3924719
-0.3924694
-0.3924613
-0.39244061
-0.39244194
-0.39244313
-0.39244684
-0.39245364
-0.3924585
-0.3924601
-0.39246082
-0.39245928
-0.39245273
-0.39244
-0.39243973
-0.3924389
-0.39243922
-0.39244379
-0.39244795
-0.39244828
-0.39244818
-0.39244717
-0.39244278
-0.41694793
-0.41695989
-0.41697132
-0.41698274
-0.41699352
-0.41699797
-0.41698972
-0.41696769
-0.4169378
-0.41691513
-0.4169506
-0.41696072
-0.41697248
-0.41698567
-0.41699855
-0.41700604
-0.41700209
-0.41698555
-0.41696031
-0.41693948
-0.41695229
-0.41696209
-0.41697376
-0.41698735
-0.41700066
-0.41700967
-0.41700935
-0.41699834
-0.41698075
-0.41696735
-0.41695477
-0.41696343
-0.4169743
-0.41698739
-0.41700003
-0.41700912
-0.41701113
-0.41700485
-0.41699307
-0.41698284
-0.4169575
-0.41696447
-0.41697377
-0.41698568
-0.41699723
-0.41700552
-0.41700856
-0.41700548
-0.41699758
-0.41698813
-0.41696048
-0.41696563
-0.41697261
-0.41698261
-0.4169929
-0.41699996
-0.41700301
-0.41700175
-0.41699653
-0.41698791
-0.4169632
-0.41696676
-0.41697116
-0.41697862
-0.41698735
-0.41699323
-0.41699562
-0.41699509
-0.41699158
-0.41698411
-0.4169654
-0.41696745
-0.41696951
-0.41697405
-0.41698089
-0.41698572
-0.4169872
-0.4169866
-0.41698397
-0.4169777
-0.41696621
-0.41696683
-0.41696718
-0.416969
-0.41697381
-0.41697764
-0.41697834
-0.41697732
-0.41697511
-0.41696995
-0.41696566
-0.41696518
-0.4169642
-0.41696364
-0.41696613
-0.41696953
-0.41696975
-0.41696813
-0.41696626
-0.41696209
-0.44147599
-0.44148704
-0.44149859
-0.44151188
-0.44152459
-0.44153074
-0.4415251
-0.4415072
-0.44148191
-0.44146256
-0.44147797
-0.4414871
-0.44149825
-0.44151182
-0.4415252
-0.44153321
-0.44153096
-0.44151863
-0.44149949
-0.44148437
-0.44147978
-0.44148793
-0.44149816
-0.44151085
-0.44152343
-0.44153193
-0.44153227
-0.44152438
-0.44151196
-0.44150344
-0.44148198
-0.44148876
-0.44149772
-0.44150905
-0.44152019
-0.44152809
-0.4415299
-0.44152529
-0.44151691
-0.44151022
-0.44148432
-0.44148951
-0.44149669
-0.44150636
-0.44151604
-0.4415228
-0.44152509
-0.44152255
-0.44151658
-0.44150992
-0.44148676
-0.44149042
-0.4414954
-0.44150303
-0.44151129
-0.44151692
-0.44151891
-0.44151739
-0.441513
-0.44150658
-0.44148893
-0.44149133
-0.44149415
-0.44149934
-0.44150606
-0.44151081
-0.4415122
-0.44151088
-0.44150737
-0.44150139
-0.44149072
-0.44149196
-0.44149297
-0.44149558
-0.4415005
-0.44150447
-0.4415054
-0.44150388
-0.44150072
-0.44149523
-0.44149147
-0.44149162
-0.4414914
-0.44149191
-0.44149474
-0.4414979
-0.44149867
-0.44149706
-0.44149409
-0.44148902
-0.44149126
-0.44149061
-0.44148946
-0.4414884
-0.44148896
-0.44149166
-0.44149231
-0.44149069
-0.44148803
-0.44148337
-0.4660029
-0.46601254
-0.46602429
-0.46603882
-0.4660523
-0.46605923
-0.46605606
-0.46604333
-0.46602512
-0.46601115
-0.46600379
-0.46601194
-0.46602255
-0.46603582
-0.46604863
-0.46605637
-0.46605546
-0.46604714
-0.46603483
-0.46602613
-0.46600571
-0.46601243
-0.46602142
-0.46603277
-0.46604387
-0.46605133
-0.46605206
-0.4660467
-0.46603882
-0.4660344
-0.46600779
-0.46601305
-0.46602039
-0.46602986
-0.46603914
-0.46604552
-0.46604704
-0.46604368
-0.46603786
-0.46603364
-0.46600994
-0.46601373
-0.46601917
-0.46602681
-0.46603459
-0.46603985
-0.46604142
-0.46603925
-0.46603463
-0.46602979
-0.46601208
-0.46601457
-0.46601801
-0.46602365
-0.4660301
-0.4660346
-0.46603583
-0.46603414
-0.46603027
-0.46602501
-0.46601392
-0.46601544
-0.4660171
-0.46602051
-0.46602553
-0.46602946
-0.46603047
-0.46602883
-0.46602525
-0.46601974
-0.46601544
-0.4660161
-0.46601639
-0.46601765
-0.4660208
-0.46602408
-0.46602518
-0.46602359
-0.46602006
-0.46601449
-0.46601623
-0.46601607
-0.46601542
-0.46601511
-0.46601618
-0.46601855
-0.46601958
-0.46601842
-0.46601518
-0.46600979
-0.46601655
-0.46601572
-0.46601434
-0.466013
-0.46601222
-0.46601358
-0.46601443
-0.46601355
-0.46601073
-0.46600585
-0.49052872
-0.49053749
-0.49054947
-0.49056408
-0.49057678
-0.49058316
-0.49058112
-0.49057207
-0.49055942
-0.49055093
-0.49052844
-0.49053604
-0.49054608
-0.49055833
-0.4905696
-0.49057627
-0.49057585
-0.49056986
-0.49056188
-0.49055723
-0.49053027
-0.49053601
-0.49054388
-0.49055368
-0.49056291
-0.49056887
-0.49056953
-0.49056555
-0.49055993
-0.49055665
-0.49053229
-0.49053642
-0.49054239
-0.4905502
-0.4905577
-0.4905625
-0.49056351
-0.49056078
-0.49055606
-0.49055189
-0.49053439
-0.49053707
-0.49054113
-0.49054717
-0.49055345
-0.4905575
-0.49055843
-0.49055637
-0.49055222
-0.49054714
-0.49053638
-0.49053796
-0.49054022
-0.49054435
-0.49054953
-0.49055337
-0.49055421
-0.49055243
-0.49054855
-0.49054279
-0.49053806
-0.49053889
-0.49053971
-0.49054185
-0.49054551
-0.49054893
-0.49055012
-0.49054858
-0.49054479
-0.49053863
-0.49053942
-0.49053967
-0.49053941
-0.4905398
-0.49054148
-0.49054408
-0.49054548
-0.49054441
-0.49054084
-0.49053476
-0.49054035
-0.49053997
-0.49053897
-0.49053815
-0.49053794
-0.49053913
-0.49054011
-0.49053982
-0.49053692
-0.49053153
-0.4905413
-0.4905403
-0.49053866
-0.49053707
-0.49053556
-0.49053531
-0.49053589
-0.49053558
-0.49053332
-0.49052899
-0.51505398
-0.51506259
-0.51507457
-0.51508819
-0.51509896
-0.51510363
-0.51510107
-0.51509323
-0.51508282
-0.51507615
-0.51505222
-0.51505943
-0.51506877
-0.51507965
-0.51508902
-0.51509409
-0.51509318
-0.51508778
-0.51508083
-0.51507592
-0.51505349
-0.51505837
-0.51506517
-0.51507359
-0.51508124
-0.51508574
-0.51508594
-0.51508219
-0.51507664
-0.51507161
-0.51505539
-0.51505848
-0.51506323
-0.5150698
-0.51507615
-0.51507997
-0.51508051
-0.51507782
-0.51507295
-0.51506702
-0.51505752
-0.5150592
-0.51506208
-0.51506696
-0.51507249
-0.51507629
-0.51507695
-0.51507487
-0.51507047
-0.51506378
-0.51505953
-0.51506031
-0.51506161
-0.5150646
-0.51506895
-0.51507271
-0.51507402
-0.5150725
-0.51506838
-0.51506123
-0.51506119
-0.51506147
-0.5150616
-0.51506281
-0.51506537
-0.51506855
-0.51507034
-0.51506954
-0.51506583
-0.5150588
-0.51506254
-0.51506248
-0.51506177
-0.51506154
-0.5150621
-0.51506382
-0.51506551
-0.51506549
-0.51506249
-0.51505632
-0.5150637
-0.51506319
-0.51506186
-0.51506065
-0.51505964
-0.51505953
-0.51506024
-0.51506074
-0.51505881
-0.51505418
-0.51506528
-0.51506418
-0.51506231
-0.51506045
-0.51505853
-0.51505702
-0.51505679
-0.51505683
-0.51505555
-0.51505242
-0.53957947
-0.53958813
-0.53959972
-0.5396117
-0.53962
-0.53962236
-0.53961839
-0.53961023
-0.53960017
-0.53959257
-0.53957536
-0.53958193
-0.53959067
-0.53960021
-0.53960791
-0.53961154
-0.53960993
-0.53960441
-0.53959719
-0.53959027
-0.53957525
-0.53957922
-0.53958516
-0.53959262
-0.53959935
-0.53960322
-0.53960342
-0.53959995
-0.53959414
-0.53958701
-0.53957687
-0.53957893
-0.53958273
-0.53958846
-0.53959441
-0.53959847
-0.53959951
-0.53959744
-0.5395926
-0.53958501
-0.53957914
-0.53957988
-0.53958185
-0.53958588
-0.53959105
-0.53959539
-0.5395972
-0.53959611
-0.53959199
-0.539584
-0.53958137
-0.53958146
-0.53958201
-0.53958414
-0.53958779
-0.53959193
-0.53959455
-0.5395944
-0.53959092
-0.53958297
-0.53958322
-0.53958307
-0.53958263
-0.53958312
-0.53958475
-0.5395876
-0.53959025
-0.53959106
-0.53958844
-0.53958132
-0.53958474
-0.53958449
-0.53958337
-0.53958263
-0.53958235
-0.53958316
-0.53958487
-0.53958596
-0.53958446
-0.53957896
-0.53958617
-0.53958567
-0.53958408
-0.53958249
-0.53958092
-0.53957971
-0.53957985
-0.53958052
-0.53958011
-0.53957664
-0.53958833
-0.53958727
-0.53958522
-0.53958307
-0.53958083
-0.53957847
-0.53957707
-0.53957691
-0.53957667
-0.53957485
-0.56410674
-0.5641152
-0.56412557
-0.56413551
-0.56414109
-0.56414134
-0.56413667
-0.56412856
-0.56411926
-0.56411138
-0.56409888
-0.56410504
-0.56411284
-0.56412109
-0.56412751
-0.56413024
-0.56412904
-0.56412447
-0.56411804
-0.56411043
-0.56409616
-0.56409966
-0.56410506
-0.56411169
-0.56411798
-0.56412229
-0.5641237
-0.56412189
-0.56411724
-0.56410971
-0.5640969
-0.56409838
-0.56410173
-0.56410685
-0.56411261
-0.56411762
-0.56412046
-0.56412048
-0.56411722
-0.56410971
-0.56409915
-0.56409936
-0.56410093
-0.56410435
-0.56410912
-0.56411414
-0.56411797
-0.56411916
-0.56411689
-0.56410938
-0.56410171
-0.56410145
-0.56410167
-0.5641032
-0.5641061
-0.56411019
-0.56411421
-0.56411627
-0.56411482
-0.56410772
-0.56410395
-0.56410363
-0.56410294
-0.5641029
-0.56410364
-0.56410578
-0.56410886
-0.56411126
-0.5641106
-0.56410462
-0.56410585
-0.56410561
-0.56410426
-0.56410309
-0.56410208
-0.56410185
-0.56410312
-0.56410495
-0.56410504
-0.56410082
-0.56410766
-0.56410734
-0.56410561
-0.56410369
-0.56410163
-0.56409945
-0.56409866
-0.56409919
-0.5640998