/*--------------------------------*- C++ -*----------------------------------*\
| =========                 |                                                 |
| \\      /  F ield         | OpenFOAM: The Open Source CFD Toolbox           |
|  \\    /   O peration     | Version:  2212                                  |
|   \\  /    A nd           | Website:  www.openfoam.com                      |
|    \\/     M anipulation  |                                                 |
\*---------------------------------------------------------------------------*/
FoamFile
{
    version     2.0;
    format      ascii;
    arch        "LSB;label=32;scalar=64";
    class       volScalarField;
    location    "600";
    object      p_rgh;
}
// * * * * * * * * * * * * * * * * * * * * * * * * * * * * * * * * * * * * * //

dimensions      [0 2 -2 0 0 0 0];

internalField   nonuniform List<scalar> 
111200
(
0.012261182
0.012257054
0.01225213
0.012250775
0.012253335
0.012255283
0.012255119
0.012253528
0.012249089
0.012241768
0.012262011
0.012256871
0.012250796
0.012247796
0.012248916
0.012250501
0.012250434
0.012248934
0.012245088
0.012237846
0.012263108
0.01225724
0.012249923
0.012245439
0.012244888
0.012245953
0.012246157
0.012244905
0.012241541
0.012235242
0.012262364
0.012256454
0.012248782
0.012243489
0.012241747
0.012242108
0.012242511
0.012241714
0.012239108
0.012234193
0.012259595
0.0122543
0.012247166
0.012241846
0.012239523
0.012239124
0.01223938
0.012238902
0.01223697
0.01223306
0.012254993
0.012250711
0.012244656
0.012239915
0.012237605
0.012236928
0.012236786
0.012236329
0.012234777
0.012231569
0.01224858
0.012245501
0.012240866
0.01223715
0.012235297
0.012234711
0.012234556
0.012234167
0.012232773
0.01223014
0.012240698
0.012238726
0.012235743
0.012233425
0.012232387
0.012232155
0.012232123
0.012231816
0.012230843
0.012228856
0.012232309
0.012230805
0.012229313
0.01222865
0.012228852
0.012229313
0.012229501
0.012229325
0.012228658
0.012227312
0.012225104
0.012223923
0.012223049
0.012223414
0.012224782
0.012226212
0.012226872
0.012226863
0.012226289
0.012225424
0.012256283
0.012256231
0.012256208
0.012258634
0.012261821
0.012263193
0.012262186
0.012258481
0.012249783
0.012237885
0.012256703
0.012255481
0.012253961
0.012254935
0.012257344
0.012258627
0.012257084
0.01225278
0.012244036
0.012229966
0.012256555
0.012254449
0.012251509
0.012250661
0.012251837
0.012252872
0.012251615
0.012247377
0.012239044
0.012225575
0.012254964
0.012252508
0.012248911
0.012246644
0.012246063
0.012246526
0.012246041
0.01224291
0.012236358
0.012226087
0.012251995
0.012249774
0.012246329
0.012243366
0.012241137
0.012240472
0.012240407
0.012238655
0.012234208
0.012226849
0.012247524
0.01224615
0.012243524
0.012240726
0.012237572
0.012235624
0.012235155
0.012234208
0.012231375
0.012226214
0.012241519
0.012241421
0.012239975
0.012238062
0.012235021
0.012232339
0.012231104
0.012230062
0.012228179
0.01222461
0.012234731
0.012235916
0.012235519
0.012234719
0.012232598
0.012230098
0.0122285
0.012227308
0.012225582
0.012222845
0.012228359
0.012230374
0.012230423
0.012230397
0.012229447
0.012227864
0.0122266
0.012225407
0.01222377
0.012221601
0.012224429
0.012225924
0.012225893
0.012226222
0.012226078
0.012225386
0.012224828
0.012224065
0.012222737
0.012221155
0.012254318
0.012255991
0.012258375
0.012261838
0.012264871
0.012266031
0.012265982
0.012263705
0.012256051
0.012242232
0.012254769
0.012255545
0.012257176
0.012260299
0.01226332
0.012263836
0.012262014
0.012258082
0.01224901
0.012232758
0.012253645
0.01225367
0.012254598
0.012257218
0.012260143
0.012260706
0.012258123
0.012252767
0.012242401
0.012225376
0.012251217
0.012250822
0.012251154
0.012252873
0.01225524
0.012256022
0.012253814
0.012248385
0.012238467
0.012223387
0.012247645
0.012247263
0.012247276
0.012248011
0.012249342
0.012250067
0.012248427
0.012244076
0.012235992
0.012223831
0.01224276
0.012242962
0.012243142
0.012243253
0.012243438
0.012243529
0.012242295
0.012238927
0.012232934
0.01222389
0.012236509
0.012237963
0.012238753
0.01223879
0.012238275
0.012237707
0.012236401
0.012233575
0.012228989
0.012222588
0.012229884
0.012232773
0.01223421
0.012234548
0.012233992
0.0122331
0.012231727
0.012229192
0.0122253
0.01222049
0.012224135
0.01222799
0.0122297
0.012230438
0.012230307
0.012229545
0.012228284
0.012226064
0.012222643
0.012218598
0.012220896
0.012223772
0.012225348
0.012226618
0.012227087
0.012226696
0.01222571
0.012223895
0.012220963
0.012217452
0.012255272
0.012256771
0.01225765
0.012259076
0.012261287
0.012263399
0.012265843
0.012266884
0.012263331
0.01225338
0.01225547
0.012256323
0.012257014
0.012258579
0.012260872
0.012262179
0.012262726
0.012262249
0.01225716
0.012245224
0.012254064
0.012254301
0.012254744
0.012256488
0.012259124
0.012260334
0.01225979
0.012257352
0.012250108
0.012236719
0.01225145
0.012251184
0.012251227
0.01225274
0.012255522
0.012257136
0.012256271
0.012252637
0.012244164
0.012230267
0.012247442
0.012247086
0.012246887
0.012247906
0.012250283
0.012252011
0.012251264
0.012247701
0.012239722
0.012226785
0.012241782
0.012242064
0.012242063
0.012242672
0.012244308
0.012245677
0.012244983
0.012241825
0.012235366
0.012224817
0.012234561
0.012236344
0.012237039
0.012237551
0.012238573
0.012239392
0.01223857
0.012235622
0.012230458
0.012222851
0.01222697
0.012230674
0.012232206
0.012232891
0.012233688
0.012234093
0.01223312
0.012230334
0.012225889
0.012220498
0.012220578
0.012225687
0.012227765
0.012228849
0.012229845
0.012230134
0.012229103
0.012226566
0.012222611
0.012218365
0.012217478
0.012221843
0.012223831
0.012225472
0.012226848
0.012227262
0.012226337
0.012224101
0.012220533
0.012216729
0.012254331
0.012255549
0.012255534
0.012255323
0.012256349
0.012258829
0.012263017
0.012266741
0.012266191
0.012259324
0.012254812
0.012255657
0.012255859
0.01225591
0.012256778
0.012258296
0.012260818
0.012263649
0.012262679
0.012255314
0.012253828
0.012254261
0.012254499
0.012254932
0.012256076
0.012257406
0.012258877
0.012259979
0.012257218
0.012249563
0.012251532
0.012251524
0.01225157
0.012252154
0.012253617
0.012255134
0.012256081
0.012255752
0.012251409
0.012242901
0.012247415
0.012247426
0.012247438
0.012248007
0.012249477
0.012251003
0.012251595
0.012250699
0.012245941
0.012236782
0.012241462
0.012242202
0.012242577
0.012243125
0.01224435
0.01224562
0.012245766
0.0122445
0.012240381
0.012232057
0.012233581
0.012236181
0.012237442
0.012238138
0.012239153
0.01224008
0.012239756
0.012237947
0.012234455
0.012228361
0.012225254
0.012230228
0.01223257
0.012233606
0.012234668
0.012235359
0.012234636
0.012232316
0.012228916
0.012224876
0.012218349
0.012225029
0.012228108
0.012229782
0.012231322
0.012232039
0.01223105
0.012228356
0.012224638
0.012221552
0.012215346
0.012221232
0.012224469
0.012226919
0.01222907
0.012230007
0.012228988
0.012226124
0.012221994
0.012218547
0.012251411
0.012251898
0.012251217
0.012250316
0.012250764
0.01225329
0.012258106
0.0122629
0.012263659
0.012258711
0.012252557
0.012252883
0.012252458
0.012251716
0.012251813
0.012253276
0.012256614
0.012260982
0.01226233
0.01225707
0.012252321
0.012252461
0.012252187
0.012251752
0.012251946
0.012253098
0.012255578
0.012258728
0.012259199
0.012254496
0.012250676
0.012250665
0.012250465
0.012250305
0.012250651
0.01225169
0.012253638
0.012255744
0.012255142
0.012250576
0.012246798
0.012247167
0.012247348
0.012247557
0.012247987
0.012248666
0.01224993
0.012251529
0.01225059
0.012245703
0.01224063
0.01224205
0.012242992
0.012243644
0.012244219
0.012244509
0.012244802
0.012245713
0.012245175
0.012240464
0.012232121
0.012235659
0.012237789
0.012238954
0.012239827
0.012240016
0.012239394
0.012239093
0.012238793
0.012235641
0.012223158
0.012229252
0.012232616
0.012234337
0.012235623
0.012235958
0.012234783
0.012233177
0.012232189
0.012230962
0.012216072
0.012223824
0.012227943
0.012230341
0.012232183
0.012232753
0.012231393
0.012228941
0.0122268
0.01222622
0.012213405
0.012219954
0.012223963
0.012227015
0.012229357
0.012230114
0.012228804
0.012226137
0.012223279
0.012221835
0.012247867
0.012247821
0.012246904
0.012245846
0.012245951
0.012247865
0.012251908
0.012256373
0.012257429
0.012253888
0.012249841
0.012249707
0.012248751
0.012247571
0.012247298
0.012248379
0.012251212
0.012255326
0.012257504
0.012253563
0.012250097
0.012249846
0.012248961
0.012247979
0.012247857
0.012248905
0.012251337
0.012254603
0.012256185
0.012252954
0.012248728
0.01224849
0.012247824
0.01224713
0.012247138
0.012248226
0.012250642
0.012253526
0.012254379
0.012251934
0.012244737
0.012245168
0.012245207
0.012245057
0.01224513
0.012245839
0.012247904
0.012250954
0.012252053
0.012249748
0.012238221
0.012239938
0.012241047
0.012241562
0.012241835
0.01224211
0.012243326
0.01224614
0.01224815
0.012246352
0.01222963
0.012233682
0.012236085
0.012237137
0.012237656
0.012237752
0.012238033
0.012239865
0.012242341
0.012242221
0.012221126
0.012227449
0.012230846
0.01223222
0.012233052
0.012233219
0.012232911
0.012233575
0.012235535
0.012237324
0.012213881
0.012221135
0.012225052
0.012227493
0.012229143
0.012229267
0.012228448
0.01222819
0.012229133
0.012231615
0.012209927
0.012216537
0.012221776
0.012226162
0.012228199
0.012226931
0.012224693
0.012223542
0.012223802
0.012225822
0.012244295
0.012243923
0.012242963
0.012241851
0.01224154
0.012242429
0.012244907
0.012248205
0.012249098
0.01224668
0.01224679
0.012246382
0.01224503
0.012243533
0.01224302
0.012243585
0.012245232
0.012247855
0.012249581
0.012246879
0.012247278
0.01224677
0.012245336
0.012243826
0.012243528
0.012244517
0.012246419
0.012248529
0.012249418
0.012246836
0.012245902
0.012245437
0.012244262
0.012242951
0.012242707
0.012244008
0.012246568
0.01224905
0.012249459
0.012247239
0.012241838
0.012242175
0.01224179
0.012240969
0.012240666
0.012241652
0.012244313
0.012247617
0.012248898
0.012247086
0.012236047
0.012237648
0.012237965
0.012237284
0.012236854
0.012237459
0.012239731
0.012243409
0.01224618
0.012245699
0.012228246
0.012231386
0.01223216
0.01223144
0.012231076
0.012231676
0.012233634
0.012237196
0.012241003
0.012242793
0.012219732
0.012225114
0.01222744
0.012227101
0.012226048
0.012225756
0.012227033
0.012230152
0.012234307
0.012238345
0.012213547
0.012221752
0.012225305
0.012225104
0.012222719
0.012220083
0.012219909
0.012222564
0.012226852
0.012232066
0.012209401
0.012216584
0.012219706
0.012220937
0.012219703
0.012215061
0.012212421
0.012214316
0.012219069
0.012224852
0.012241273
0.012240619
0.012239446
0.012238032
0.012237191
0.012237134
0.012238082
0.012239919
0.012240671
0.012239489
0.012243703
0.012243206
0.012241539
0.012239608
0.012238714
0.012238772
0.012239394
0.012240344
0.012240916
0.012239102
0.012244242
0.012243702
0.012241956
0.012239821
0.012238939
0.012239575
0.012240972
0.012241929
0.01224144
0.012238897
0.012243385
0.012242823
0.012241186
0.012238962
0.012237745
0.012238522
0.012240867
0.012242793
0.012242261
0.01223952
0.012240332
0.012240177
0.012238413
0.012235625
0.012233866
0.012234608
0.01223761
0.0122408
0.012241659
0.012239651
0.012235408
0.01223598
0.01223396
0.012229735
0.012226592
0.01222712
0.012230881
0.012235434
0.012238302
0.012238392
0.012230288
0.012233981
0.012231771
0.012224455
0.012217933
0.012216962
0.012221181
0.012227278
0.012232378
0.012235338
0.01222618
0.0122308
0.012227071
0.012218183
0.012209698
0.012206497
0.012210027
0.012217338
0.012224698
0.012230551
0.012218196
0.012221458
0.012218775
0.012213179
0.012205512
0.012199467
0.012200214
0.012207104
0.012215712
0.01222333
0.012206887
0.012209372
0.01220954
0.01220846
0.012204062
0.012195664
0.012192431
0.012197376
0.012206308
0.012214456
0.012238783
0.012237851
0.012236356
0.012234523
0.012233128
0.012232402
0.012232409
0.012233089
0.012233618
0.012233636
0.012240861
0.012240429
0.01223862
0.012236209
0.012234699
0.012234212
0.012234234
0.012234185
0.012233669
0.012232352
0.012241841
0.012241398
0.012239449
0.01223655
0.012234549
0.012234281
0.012235188
0.012235607
0.012234299
0.012231795
0.012241677
0.012240769
0.01223797
0.012233753
0.012230549
0.012230361
0.012232657
0.012234671
0.012234116
0.012231596
0.012240063
0.0122396
0.012235702
0.012228293
0.01222156
0.012220472
0.01222458
0.01222924
0.012230976
0.012229982
0.012239221
0.012239969
0.012233046
0.012220083
0.012209039
0.012205885
0.012211376
0.012219433
0.012224653
0.012226569
0.012236652
0.012236404
0.012226815
0.012211672
0.01219762
0.012191924
0.012196912
0.012207429
0.012216304
0.012221706
0.012228664
0.012227559
0.012219034
0.012205973
0.012191526
0.012183055
0.012185408
0.012195975
0.012207236
0.012215792
0.012216501
0.012215858
0.01221009
0.012201094
0.012188595
0.012178189
0.012177651
0.012186161
0.01219755
0.012208063
0.012202829
0.012202649
0.012200393
0.012195811
0.012187075
0.012175182
0.012171806
0.012177689
0.012188166
0.012198498
0.012236864
0.012235462
0.012233631
0.012231487
0.012229605
0.012228455
0.012228238
0.012228628
0.012229054
0.012229734
0.012238612
0.012238228
0.012236167
0.012233162
0.012230836
0.012229818
0.012229789
0.012229688
0.012228857
0.012227838
0.012240063
0.012239108
0.012236079
0.012231512
0.01222767
0.012226464
0.012227673
0.012228894
0.012228242
0.012226458
0.01224123
0.012239969
0.012234942
0.012226177
0.012218101
0.012215282
0.012218413
0.012222938
0.012224731
0.012224228
0.012242293
0.012240252
0.012231438
0.012217386
0.012204098
0.012198316
0.012202496
0.012211208
0.012217205
0.012219648
0.012241048
0.012237446
0.012225647
0.012208199
0.012190939
0.012181975
0.012185369
0.012196873
0.012207206
0.012213405
0.012235104
0.012230145
0.01221747
0.012199941
0.012181544
0.012170225
0.012171837
0.012183725
0.012196806
0.01220654
0.012224337
0.012219458
0.012208555
0.012193443
0.01217586
0.012163672
0.012163425
0.01217363
0.012187279
0.012199739
0.012211333
0.012207914
0.012200166
0.012188389
0.012172409
0.012160117
0.012158604
0.012165968
0.012178219
0.012192574
0.012198285
0.012196095
0.012192388
0.012185334
0.012172892
0.012159376
0.012156129
0.012160413
0.012170852
0.012184922
0.012235408
0.012233221
0.012230697
0.012228315
0.012226148
0.012224958
0.012225293
0.012226353
0.012227213
0.012228163
0.012236938
0.012235741
0.012232442
0.012228193
0.012224607
0.012223156
0.012224145
0.012225656
0.01222602
0.012225836
0.012239102
0.012237017
0.012231613
0.012223439
0.012215842
0.012212543
0.012214859
0.012219404
0.012222051
0.012222715
0.012241224
0.01223716
0.012228136
0.012215218
0.012202375
0.012195518
0.012197953
0.012206477
0.01221365
0.012217446
0.012240479
0.012234636
0.012222396
0.012205514
0.01218847
0.012177926
0.012179016
0.012190022
0.012201816
0.012209686
0.01223632
0.012228892
0.012214533
0.012195743
0.012176584
0.012163735
0.012163412
0.012174774
0.012189409
0.01220094
0.012227806
0.012219779
0.012205764
0.012187548
0.012168188
0.012154705
0.012153249
0.012163337
0.012178521
0.012192643
0.01221645
0.012209618
0.012197824
0.012181584
0.012162894
0.012150102
0.012148058
0.012155823
0.012169856
0.012185652
0.012204801
0.012199962
0.012191716
0.012178682
0.01216128
0.012149156
0.01214658
0.012151033
0.012162958
0.012179919
0.012194298
0.012191246
0.012187689
0.012180239
0.012166675
0.012153306
0.012148989
0.012149858
0.012160083
0.01217611
0.012234162
0.012230729
0.012226597
0.012223365
0.012220728
0.012219782
0.01222164
0.012224837
0.012227537
0.012229901
0.01223574
0.012232763
0.012226835
0.01221989
0.012213789
0.012211308
0.012214043
0.012219555
0.012223877
0.012226356
0.012237506
0.012232309
0.01222365
0.012212641
0.012201745
0.012195636
0.012197756
0.01220645
0.012214959
0.012220081
0.012237541
0.012229967
0.012218036
0.01220294
0.012187837
0.012177778
0.012178172
0.012188675
0.012201666
0.012210967
0.012234405
0.012225327
0.012210623
0.01219254
0.012174851
0.012162347
0.012160824
0.012171259
0.012186926
0.012199925
0.012228234
0.012218379
0.012202795
0.01218365
0.012164809
0.012151369
0.012148648
0.012157853
0.012173901
0.012189178
0.012219008
0.012209769
0.012195572
0.012177266
0.01215834
0.012145212
0.012142047
0.012149314
0.012164016
0.012180354
0.012208846
0.012201411
0.01218997
0.012173832
0.012155602
0.012143601
0.012140236
0.012144841
0.012157407
0.01217421
0.012199998
0.012194766
0.012187275
0.012174699
0.012158134
0.012146919
0.012142787
0.012143647
0.012154004
0.012171051
0.012193118
0.012190276
0.012187882
0.012181288
0.012168704
0.012156343
0.012150591
0.012148052
0.012156972
0.012172225
0.012232727
0.012227461
0.012220739
0.012215527
0.012211392
0.012210536
0.012214869
0.012222651
0.012230309
0.012236661
0.012233299
0.012227089
0.01221836
0.012209357
0.012201035
0.012196915
0.012200742
0.01221129
0.01222238
0.012229547
0.01223313
0.012224833
0.012213542
0.012200571
0.01218798
0.012179933
0.012181556
0.012193094
0.012207765
0.012217959
0.012230942
0.012220752
0.012206535
0.012190184
0.012174671
0.012163738
0.012162825
0.012173577
0.012190394
0.012204073
0.012226403
0.012215365
0.012199446
0.01218107
0.012163928
0.012151493
0.012148635
0.01215756
0.012174273
0.01218991
0.012219555
0.012208895
0.012193408
0.012174701
0.012156899
0.012144174
0.012140337
0.012147101
0.012162027
0.01217814
0.012211063
0.012201878
0.012188641
0.012171282
0.012153658
0.012141575
0.012137437
0.012141808
0.012154162
0.012170074
0.012203009
0.012195878
0.012185868
0.012171174
0.012154663
0.012143755
0.012139267
0.012140708
0.012150441
0.012166132
0.012197295
0.01219249
0.012186525
0.012175592
0.012161263
0.01215116
0.012145846
0.012143766
0.012151257
0.012166819
0.012193882
0.012191865
0.012190736
0.012185477
0.012174886
0.012164379
0.012158036
0.012153947
0.012159679
0.01217262
0.012229678
0.012221481
0.01221235
0.012205411
0.012199769
0.012198571
0.012205591
0.012219566
0.012234877
0.012246682
0.012228235
0.012219289
0.012208543
0.012197948
0.012188196
0.012183089
0.012187862
0.012202797
0.012221328
0.01223444
0.012226498
0.012216024
0.01220281
0.012188624
0.012175447
0.012166845
0.012168412
0.012181866
0.01220129
0.012215799
0.012223011
0.012211346
0.012196153
0.012179582
0.012164405
0.012153565
0.012152129
0.012162692
0.012180987
0.012196667
0.012217997
0.012206448
0.012190843
0.012173199
0.012157113
0.012145325
0.012141837
0.012149202
0.012164809
0.012180342
0.012211499
0.012201274
0.01218714
0.012169901
0.012153694
0.012142029
0.012137597
0.012142064
0.012154385
0.012169036
0.012204492
0.012196225
0.012184901
0.01216955
0.012153939
0.012143125
0.012138393
0.012140176
0.012149286
0.012163057
0.012198594
0.012192486
0.012184581
0.012172218
0.012158157
0.012148609
0.012143622
0.012142684
0.012149041
0.012162288
0.01219531
0.01219152
0.012187327
0.012178651
0.012167029
0.012158541
0.012153353
0.01214987
0.012154142
0.01216675
0.01219431
0.012193193
0.01219298
0.012189339
0.012180811
0.012172565
0.012167885
0.012163614
0.012166018
0.012175634
0.012224492
0.012213715
0.012203075
0.012194728
0.012187688
0.01218602
0.01219504
0.012214538
0.012237638
0.01225476
0.012221372
0.012210888
0.012198871
0.012187076
0.012176332
0.012170655
0.012176098
0.012194132
0.012218531
0.012237435
0.012218869
0.012207323
0.012193483
0.01217899
0.012165658
0.01215688
0.01215841
0.012172792
0.012194515
0.012211404
0.012214964
0.012203125
0.012188492
0.012172652
0.012158161
0.012147693
0.012145945
0.012155704
0.012173209
0.01218835
0.012210189
0.012199367
0.012185348
0.012169285
0.01215461
0.012143763
0.012139998
0.012145627
0.012158698
0.012172368
0.012204657
0.012195731
0.012183793
0.012168762
0.012154501
0.012144201
0.012139622
0.012142095
0.012151222
0.012163493
0.012199284
0.012192448
0.012183493
0.012170731
0.012157464
0.012148251
0.012143572
0.012143628
0.012149523
0.012160605
0.012195075
0.012190325
0.012184629
0.012174931
0.012163481
0.012155632
0.012151222
0.012149416
0.012152856
0.012163073
0.012193236
0.0121906
0.012187964
0.012181722
0.012172614
0.012165984
0.012162331
0.012159385
0.012161133
0.012170167
0.012193478
0.012193012
0.012193282
0.012191285
0.012184583
0.01217866
0.012176374
0.012173684
0.012174134
0.01218015
0.012218294
0.012206027
0.012194568
0.012184767
0.012176062
0.012173346
0.012182872
0.012205184
0.012233234
0.012253247
0.012214323
0.012203327
0.012190949
0.012178341
0.012166577
0.012160106
0.01216529
0.012183846
0.012210394
0.012231756
0.012211572
0.012200175
0.012186998
0.012172816
0.012159443
0.012150503
0.012151567
0.012164946
0.012185593
0.012201407
0.01220781
0.012197015
0.01218402
0.012169458
0.012155838
0.012145967
0.012143971
0.012152022
0.012166736
0.012179216
0.012203683
0.012194474
0.012182727
0.012168681
0.012155552
0.012145923
0.012142283
0.01214624
0.01215621
0.012167343
0.012199279
0.012192096
0.012182645
0.012170125
0.012157879
0.012149203
0.012145096
0.012146352
0.012152709
0.012162685
0.012195275
0.012190001
0.012183392
0.012173326
0.01216239
0.012154951
0.012151144
0.012150779
0.012154521
0.012163203
0.012192204
0.012188757
0.012184966
0.012177895
0.01216885
0.012162683
0.012159671
0.012158574
0.012160606
0.012168012
0.012191084
0.012189399
0.012187902
0.01218394
0.012176967
0.012171931
0.012170079
0.012169002
0.012170039
0.012175899
0.012191767
0.012191643
0.012192082
0.012191387
0.01218651
0.012182073
0.01218142
0.012181098
0.012181567
0.012185277
0.012212262
0.012199736
0.012187987
0.012176455
0.012165672
0.01216125
0.012169363
0.012190778
0.012219285
0.012239801
0.01220832
0.012197733
0.012185762
0.012172537
0.012159734
0.012152317
0.012156195
0.012172283
0.012196387
0.012215323
0.01220553
0.012195362
0.012183568
0.012170008
0.012156798
0.012147881
0.012148166
0.012158831
0.01217551
0.012187332
0.012202164
0.012193199
0.01218225
0.012169226
0.012156691
0.012147678
0.012145637
0.012151643
0.012162697
0.012171648
0.012198741
0.012191497
0.012182124
0.012170268
0.012158811
0.012150575
0.012147483
0.012150312
0.012157628
0.012166051
0.012195276
0.012189844
0.012182744
0.012172751
0.012162527
0.012155476
0.012152341
0.012153352
0.012158059
0.012165812
0.012192245
0.012188375
0.012183776
0.012176251
0.012167511
0.012161592
0.012159067
0.012159327
0.012162353
0.012169056
0.012189904
0.012187502
0.012185153
0.012180427
0.012173481
0.01216855
0.012166885
0.012167172
0.012169312
0.012174876
0.012189102
0.012188074
0.012187338
0.012185203
0.012180165
0.012176145
0.012175204
0.012175872
0.01217758
0.012182061
0.012189769
0.012189797
0.012190302
0.012190427
0.012187562
0.012183858
0.01218333
0.012184556
0.012185919
0.01218945
0.012207052
0.012195523
0.012183738
0.012170394
0.012157717
0.012151598
0.012157073
0.01217436
0.012198294
0.012215541
0.012203921
0.012194412
0.012183122
0.012169566
0.012156265
0.012148306
0.012150439
0.012162265
0.012180272
0.012193554
0.012201143
0.012192696
0.012182385
0.012169754
0.012157268
0.012148815
0.012148387
0.012155868
0.012167353
0.012174327
0.012198166
0.012191135
0.012182115
0.012170841
0.012159803
0.012151943
0.012150046
0.012154311
0.012161931
0.012167349
0.012195251
0.012189801
0.012182533
0.012172895
0.012163301
0.01215656
0.012154171
0.012156402
0.012161751
0.012167364
0.012192419
0.012188464
0.012183324
0.012175663
0.012167445
0.01216181
0.012159694
0.012160926
0.012164768
0.012170319
0.012190021
0.012187269
0.012184205
0.012178885
0.012172122
0.012167312
0.012165789
0.012166812
0.012169818
0.01217504
0.01218816
0.01218651
0.012185148
0.012182279
0.012177203
0.012173112
0.012172
0.012173208
0.012175897
0.01218069
0.012187471
0.012186851
0.012186615
0.012185717
0.012182586
0.012179196
0.012178187
0.012179475
0.012181972
0.012186398
0.012187832
0.012187958
0.012188565
0.012189105
0.012188103
0.012185056
0.012184079
0.012185344
0.012187525
0.012191589
0.012203074
0.012193047
0.012181138
0.0121666
0.012153181
0.012146266
0.012149263
0.01216141
0.012178407
0.012190485
0.012201158
0.012192705
0.012182009
0.012168772
0.01215605
0.012148342
0.012149107
0.012156931
0.012168208
0.012175262
0.012198393
0.012191423
0.012182378
0.012171083
0.012160077
0.012152649
0.012151786
0.012156732
0.012163746
0.012166765
0.012195653
0.012190152
0.012182738
0.012173311
0.012164123
0.012157768
0.012156121
0.012159122
0.01216422
0.01216728
0.012193008
0.01218895
0.012183379
0.012175738
0.01216802
0.01216277
0.012161089
0.012162934
0.012166951
0.012170819
0.012190562
0.012187732
0.012184079
0.012178351
0.012171892
0.012167379
0.012166036
0.01216743
0.012170778
0.012175206
0.012188565
0.012186642
0.012184658
0.01218104
0.012175916
0.012171908
0.012170762
0.012172124
0.012175234
0.012180024
0.01218703
0.012185887
0.012185176
0.012183572
0.012180181
0.012176736
0.012175456
0.012176763
0.012179841
0.012184756
0.012186328
0.012185949
0.012186067
0.0121859
0.012184453
0.012181786
0.012180494
0.012181346
0.012184144
0.012188928
0.012186182
0.012186413
0.01218718
0.012187931
0.012188184
0.012186391
0.012185171
0.01218568
0.012188045
0.012192344
0.012200271
0.012191198
0.012179118
0.012164545
0.01215192
0.01214555
0.012147428
0.012155971
0.012167609
0.012174528
0.012199654
0.012191802
0.012181697
0.012169508
0.012158323
0.012151675
0.012151951
0.012157502
0.012164609
0.012167889
0.01219708
0.012191107
0.012183173
0.012173431
0.012164288
0.012158357
0.012157568
0.012161168
0.012166041
0.012168144
0.012194485
0.012190098
0.012184025
0.012176227
0.012168801
0.012164021
0.012162896
0.012165298
0.012169387
0.012172552
0.012191969
0.012188977
0.012184744
0.012178643
0.012172378
0.012168333
0.012167302
0.012169073
0.012172677
0.012176898
0.012189731
0.012187766
0.012185218
0.012180924
0.012175673
0.012171784
0.012170836
0.012172364
0.012175762
0.012180773
0.012187961
0.012186657
0.012185439
0.012183004
0.012179143
0.012175592
0.012174254
0.01217554
0.012178902
0.012184384
0.012186623
0.012185824
0.012185571
0.012184748
0.012182735
0.012179887
0.012178261
0.012179047
0.012182198
0.012187651
0.012185807
0.012185566
0.012185966
0.012186223
0.012185953
0.012184377
0.012183064
0.012183006
0.012185471
0.012190249
0.01218504
0.012185364
0.012186313
0.012187234
0.012188138
0.012187855
0.012186816
0.012186682
0.01218846
0.012192173
0.012198119
0.012189276
0.012177251
0.012163696
0.01215302
0.012148369
0.012150776
0.012158202
0.012167803
0.01217324
0.012199072
0.012191656
0.012182278
0.012171455
0.012162178
0.012157137
0.012157917
0.012162952
0.012169194
0.012173014
0.012197153
0.012192046
0.012185169
0.012176771
0.012169202
0.012164731
0.012164419
0.01216785
0.012172789
0.012176852
0.012194742
0.012191377
0.012186473
0.012179872
0.012173541
0.012169735
0.012169102
0.012171521
0.012175861
0.012180937
0.012192258
0.012190222
0.012187095
0.012182082
0.012176497
0.012172661
0.012171902
0.012173738
0.012177677
0.01218361
0.012190054
0.012188823
0.012187163
0.012183909
0.012179394
0.012175524
0.012174082
0.012175362
0.012179051
0.012185509
0.012188336
0.012187515
0.01218691
0.012185308
0.012182436
0.012179029
0.012177032
0.01217756
0.012180855
0.012187228
0.012187043
0.012186475
0.012186602
0.012186302
0.012185299
0.012183212
0.012181196
0.012180879
0.012183439
0.012188965
0.012186024
0.012185831
0.012186473
0.012187041
0.012187471
0.012187072
0.012185908
0.012184969
0.012186397
0.012190369
0.012184609
0.012184956
0.01218607
0.012187185
0.012188412
0.012189286
0.012188935
0.01218833
0.012189026
0.012191459
0.012195845
0.012187026
0.012175426
0.012163529
0.012155314
0.012152975
0.012156808
0.012164617
0.012174042
0.012180668
0.012199226
0.012192474
0.012183697
0.012174207
0.012166576
0.012162959
0.012164458
0.012169662
0.012176315
0.012182368
0.012198728
0.01219453
0.012188485
0.012181014
0.012174305
0.01217043
0.012170125
0.012173333
0.012178632
0.012184967
0.012196636
0.012194277
0.012190276
0.012184433
0.012178427
0.012174328
0.012173184
0.012175008
0.012179393
0.012186254
0.012194056
0.012192908
0.012190621
0.012186361
0.012181036
0.012176575
0.012174627
0.012175472
0.012179164
0.012186465
0.01219166
0.012191056
0.012190072
0.012187585
0.012183645
0.012179272
0.012176436
0.012176313
0.01217936
0.012186638
0.012189786
0.012189322
0.012189203
0.012188228
0.012186175
0.012182952
0.012179976
0.012178813
0.012180972
0.012187392
0.012188347
0.012187894
0.012188346
0.012188476
0.012188197
0.012186874
0.012184702
0.012183155
0.012184114
0.012188894
0.012187051
0.012186787
0.012187619
0.012188484
0.012189371
0.012189951
0.012189208
0.012187955
0.01218773
0.012190432
0.012185052
0.01218529
0.012186516
0.012187849
0.012189307
0.012190929
0.012191614
0.012191065
0.012190561
0.012191553
0.012191934
0.01218338
0.01217302
0.012163127
0.012157581
0.01215729
0.0121618
0.012169569
0.012178323
0.012185402
0.012199096
0.012192781
0.012184928
0.012176675
0.01217024
0.012167447
0.012168491
0.012172752
0.012178683
0.012185555
0.012201221
0.012197489
0.012191943
0.01218521
0.012178844
0.012174433
0.012172857
0.01217438
0.012178564
0.012185403
0.012200023
0.012198198
0.012194589
0.012189266
0.01218333
0.012178159
0.012175116
0.012174807
0.012177624
0.012184452
0.012197456
0.012196791
0.012194838
0.012191087
0.012186034
0.012180758
0.012176658
0.012175143
0.012176958
0.01218378
0.01219474
0.012194434
0.012193706
0.012191721
0.0121884
0.012183935
0.012179548
0.012177091
0.012178033
0.012184412
0.012192485
0.01219213
0.012192204
0.012191655
0.012190368
0.012187713
0.01218415
0.012181252
0.012181322
0.012186525
0.012190665
0.012190151
0.012190774
0.012191242
0.012191592
0.012191181
0.012189285
0.012186826
0.012186055
0.012189424
0.012188997
0.012188488
0.012189402
0.01219053
0.012191823
0.012193251
0.012193295
0.012192006
0.012190605
0.012191729
0.012186521
0.012186475
0.012187697
0.0121892
0.012190862
0.01219297
0.012194616
0.012194486
0.01219329
0.012192685
0.012185075
0.012177854
0.012169892
0.012163221
0.012159876
0.012160752
0.012164699
0.012170517
0.012176543
0.012181381
0.01219691
0.012191443
0.01218504
0.01217865
0.012173646
0.012170838
0.012170583
0.012172427
0.012175663
0.012180408
0.012202969
0.012199385
0.012194294
0.01218842
0.012182707
0.012177863
0.012174682
0.012173708
0.012175091
0.012179564
0.012203892
0.012201898
0.012198279
0.012193384
0.01218786
0.012182302
0.012177517
0.012174762
0.012174872
0.012179166
0.012202086
0.012201185
0.012199041
0.012195604
0.012191115
0.012185869
0.012180553